# vtk DataFile Version 2.0
Solution
ASCII
DATASET POLYDATA
POINTS 441 float
0 0 0
0 0.05 0
0 0.1 0
0 0.15 0
0 0.2 0
0 0.25 0
0 0.3 0
0 0.35 0
0 0.4 0
0 0.45 0
0 0.5 0
0 0.55 0
0 0.6 0
0 0.65 0
0 0.7 0
0 0.75 0
0 0.8 0
0 0.85 0
0 0.9 0
0 0.95 0
0 1 0
0.05 0 0
0.05 0.05 0
0.05 0.1 0
0.05 0.15 0
0.05 0.2 0
0.05 0.25 0
0.05 0.3 0
0.05 0.35 0
0.05 0.4 0
0.05 0.45 0
0.05 0.5 0
0.05 0.55 0
0.05 0.6 0
0.05 0.65 0
0.05 0.7 0
0.05 0.75 0
0.05 0.8 0
0.05 0.85 0
0.05 0.9 0
0.05 0.95 0
0.05 1 0
0.1 0 0
0.1 0.05 0
0.1 0.1 0
0.1 0.15 0
0.1 0.2 0
0.1 0.25 0
0.1 0.3 0
0.1 0.35 0
0.1 0.4 0
0.1 0.45 0
0.1 0.5 0
0.1 0.55 0
0.1 0.6 0
0.1 0.65 0
0.1 0.7 0
0.1 0.75 0
0.1 0.8 0
0.1 0.85 0
0.1 0.9 0
0.1 0.95 0
0.1 1 0
0.15 0 0
0.15 0.05 0
0.15 0.1 0
0.15 0.15 0
0.15 0.2 0
0.15 0.25 0
0.15 0.3 0
0.15 0.35 0
0.15 0.4 0
0.15 0.45 0
0.15 0.5 0
0.15 0.55 0
0.15 0.6 0
0.15 0.65 0
0.15 0.7 0
0.15 0.75 0
0.15 0.8 0
0.15 0.85 0
0.15 0.9 0
0.15 0.95 0
0.15 1 0
0.2 0 0
0.2 0.05 0
0.2 0.1 0
0.2 0.15 0
0.2 0.2 0
0.2 0.25 0
0.2 0.3 0
0.2 0.35 0
0.2 0.4 0
0.2 0.45 0
0.2 0.5 0
0.2 0.55 0
0.2 0.6 0
0.2 0.65 0
0.2 0.7 0
0.2 0.75 0
0.2 0.8 0
0.2 0.85 0
0.2 0.9 0
0.2 0.95 0
0.2 1 0
0.25 0 0
0.25 0.05 0
0.25 0.1 0
0.25 0.15 0
0.25 0.2 0
0.25 0.25 0
0.25 0.3 0
0.25 0.35 0
0.25 0.4 0
0.25 0.45 0
0.25 0.5 0
0.25 0.55 0
0.25 0.6 0
0.25 0.65 0
0.25 0.7 0
0.25 0.75 0
0.25 0.8 0
0.25 0.85 0
0.25 0.9 0
0.25 0.95 0
0.25 1 0
0.3 0 0
0.3 0.05 0
0.3 0.1 0
0.3 0.15 0
0.3 0.2 0
0.3 0.25 0
0.3 0.3 0
0.3 0.35 0
0.3 0.4 0
0.3 0.45 0
0.3 0.5 0
0.3 0.55 0
0.3 0.6 0
0.3 0.65 0
0.3 0.7 0
0.3 0.75 0
0.3 0.8 0
0.3 0.85 0
0.3 0.9 0
0.3 0.95 0
0.3 1 0
0.35 0 0
0.35 0.05 0
0.35 0.1 0
0.35 0.15 0
0.35 0.2 0
0.35 0.25 0
0.35 0.3 0
0.35 0.35 0
0.35 0.4 0
0.35 0.45 0
0.35 0.5 0
0.35 0.55 0
0.35 0.6 0
0.35 0.65 0
0.35 0.7 0
0.35 0.75 0
0.35 0.8 0
0.35 0.85 0
0.35 0.9 0
0.35 0.95 0
0.35 1 0
0.4 0 0
0.4 0.05 0
0.4 0.1 0
0.4 0.15 0
0.4 0.2 0
0.4 0.25 0
0.4 0.3 0
0.4 0.35 0
0.4 0.4 0
0.4 0.45 0
0.4 0.5 0
0.4 0.55 0
0.4 0.6 0
0.4 0.65 0
0.4 0.7 0
0.4 0.75 0
0.4 0.8 0
0.4 0.85 0
0.4 0.9 0
0.4 0.95 0
0.4 1 0
0.45 0 0
0.45 0.05 0
0.45 0.1 0
0.45 0.15 0
0.45 0.2 0
0.45 0.25 0
0.45 0.3 0
0.45 0.35 0
0.45 0.4 0
0.45 0.45 0
0.45 0.5 0
0.45 0.55 0
0.45 0.6 0
0.45 0.65 0
0.45 0.7 0
0.45 0.75 0
0.45 0.8 0
0.45 0.85 0
0.45 0.9 0
0.45 0.95 0
0.45 1 0
0.5 0 0
0.5 0.05 0
0.5 0.1 0
0.5 0.15 0
0.5 0.2 0
0.5 0.25 0
0.5 0.3 0
0.5 0.35 0
0.5 0.4 0
0.5 0.45 0
0.5 0.5 0
0.5 0.55 0
0.5 0.6 0
0.5 0.65 0
0.5 0.7 0
0.5 0.75 0
0.5 0.8 0
0.5 0.85 0
0.5 0.9 0
0.5 0.95 0
0.5 1 0
0.55 0 0
0.55 0.05 0
0.55 0.1 0
0.55 0.15 0
0.55 0.2 0
0.55 0.25 0
0.55 0.3 0
0.55 0.35 0
0.55 0.4 0
0.55 0.45 0
0.55 0.5 0
0.55 0.55 0
0.55 0.6 0
0.55 0.65 0
0.55 0.7 0
0.55 0.75 0
0.55 0.8 0
0.55 0.85 0
0.55 0.9 0
0.55 0.95 0
0.55 1 0
0.6 0 0
0.6 0.05 0
0.6 0.1 0
0.6 0.15 0
0.6 0.2 0
0.6 0.25 0
0.6 0.3 0
0.6 0.35 0
0.6 0.4 0
0.6 0.45 0
0.6 0.5 0
0.6 0.55 0
0.6 0.6 0
0.6 0.65 0
0.6 0.7 0
0.6 0.75 0
0.6 0.8 0
0.6 0.85 0
0.6 0.9 0
0.6 0.95 0
0.6 1 0
0.65 0 0
0.65 0.05 0
0.65 0.1 0
0.65 0.15 0
0.65 0.2 0
0.65 0.25 0
0.65 0.3 0
0.65 0.35 0
0.65 0.4 0
0.65 0.45 0
0.65 0.5 0
0.65 0.55 0
0.65 0.6 0
0.65 0.65 0
0.65 0.7 0
0.65 0.75 0
0.65 0.8 0
0.65 0.85 0
0.65 0.9 0
0.65 0.95 0
0.65 1 0
0.7 0 0
0.7 0.05 0
0.7 0.1 0
0.7 0.15 0
0.7 0.2 0
0.7 0.25 0
0.7 0.3 0
0.7 0.35 0
0.7 0.4 0
0.7 0.45 0
0.7 0.5 0
0.7 0.55 0
0.7 0.6 0
0.7 0.65 0
0.7 0.7 0
0.7 0.75 0
0.7 0.8 0
0.7 0.85 0
0.7 0.9 0
0.7 0.95 0
0.7 1 0
0.75 0 0
0.75 0.05 0
0.75 0.1 0
0.75 0.15 0
0.75 0.2 0
0.75 0.25 0
0.75 0.3 0
0.75 0.35 0
0.75 0.4 0
0.75 0.45 0
0.75 0.5 0
0.75 0.55 0
0.75 0.6 0
0.75 0.65 0
0.75 0.7 0
0.75 0.75 0
0.75 0.8 0
0.75 0.85 0
0.75 0.9 0
0.75 0.95 0
0.75 1 0
0.8 0 0
0.8 0.05 0
0.8 0.1 0
0.8 0.15 0
0.8 0.2 0
0.8 0.25 0
0.8 0.3 0
0.8 0.35 0
0.8 0.4 0
0.8 0.45 0
0.8 0.5 0
0.8 0.55 0
0.8 0.6 0
0.8 0.65 0
0.8 0.7 0
0.8 0.75 0
0.8 0.8 0
0.8 0.85 0
0.8 0.9 0
0.8 0.95 0
0.8 1 0
0.85 0 0
0.85 0.05 0
0.85 0.1 0
0.85 0.15 0
0.85 0.2 0
0.85 0.25 0
0.85 0.3 0
0.85 0.35 0
0.85 0.4 0
0.85 0.45 0
0.85 0.5 0
0.85 0.55 0
0.85 0.6 0
0.85 0.65 0
0.85 0.7 0
0.85 0.75 0
0.85 0.8 0
0.85 0.85 0
0.85 0.9 0
0.85 0.95 0
0.85 1 0
0.9 0 0
0.9 0.05 0
0.9 0.1 0
0.9 0.15 0
0.9 0.2 0
0.9 0.25 0
0.9 0.3 0
0.9 0.35 0
0.9 0.4 0
0.9 0.45 0
0.9 0.5 0
0.9 0.55 0
0.9 0.6 0
0.9 0.65 0
0.9 0.7 0
0.9 0.75 0
0.9 0.8 0
0.9 0.85 0
0.9 0.9 0
0.9 0.95 0
0.9 1 0
0.95 0 0
0.95 0.05 0
0.95 0.1 0
0.95 0.15 0
0.95 0.2 0
0.95 0.25 0
0.95 0.3 0
0.95 0.35 0
0.95 0.4 0
0.95 0.45 0
0.95 0.5 0
0.95 0.55 0
0.95 0.6 0
0.95 0.65 0
0.95 0.7 0
0.95 0.75 0
0.95 0.8 0
0.95 0.85 0
0.95 0.9 0
0.95 0.95 0
0.95 1 0
1 0 0
1 0.05 0
1 0.1 0
1 0.15 0
1 0.2 0
1 0.25 0
1 0.3 0
1 0.35 0
1 0.4 0
1 0.45 0
1 0.5 0
1 0.55 0
1 0.6 0
1 0.65 0
1 0.7 0
1 0.75 0
1 0.8 0
1 0.85 0
1 0.9 0
1 0.95 0
1 1 0
POLYGONS 800 3200
3 0 21 1 
3 21 22 1 
3 1 22 2 
3 22 23 2 
3 2 23 3 
3 23 24 3 
3 3 24 4 
3 24 25 4 
3 4 25 5 
3 25 26 5 
3 5 26 6 
3 26 27 6 
3 6 27 7 
3 27 28 7 
3 7 28 8 
3 28 29 8 
3 8 29 9 
3 29 30 9 
3 9 30 10 
3 30 31 10 
3 10 31 11 
3 31 32 11 
3 11 32 12 
3 32 33 12 
3 12 33 13 
3 33 34 13 
3 13 34 14 
3 34 35 14 
3 14 35 15 
3 35 36 15 
3 15 36 16 
3 36 37 16 
3 16 37 17 
3 37 38 17 
3 17 38 18 
3 38 39 18 
3 18 39 19 
3 39 40 19 
3 19 40 20 
3 40 41 20 
3 21 42 22 
3 42 43 22 
3 22 43 23 
3 43 44 23 
3 23 44 24 
3 44 45 24 
3 24 45 25 
3 45 46 25 
3 25 46 26 
3 46 47 26 
3 26 47 27 
3 47 48 27 
3 27 48 28 
3 48 49 28 
3 28 49 29 
3 49 50 29 
3 29 50 30 
3 50 51 30 
3 30 51 31 
3 51 52 31 
3 31 52 32 
3 52 53 32 
3 32 53 33 
3 53 54 33 
3 33 54 34 
3 54 55 34 
3 34 55 35 
3 55 56 35 
3 35 56 36 
3 56 57 36 
3 36 57 37 
3 57 58 37 
3 37 58 38 
3 58 59 38 
3 38 59 39 
3 59 60 39 
3 39 60 40 
3 60 61 40 
3 40 61 41 
3 61 62 41 
3 42 63 43 
3 63 64 43 
3 43 64 44 
3 64 65 44 
3 44 65 45 
3 65 66 45 
3 45 66 46 
3 66 67 46 
3 46 67 47 
3 67 68 47 
3 47 68 48 
3 68 69 48 
3 48 69 49 
3 69 70 49 
3 49 70 50 
3 70 71 50 
3 50 71 51 
3 71 72 51 
3 51 72 52 
3 72 73 52 
3 52 73 53 
3 73 74 53 
3 53 74 54 
3 74 75 54 
3 54 75 55 
3 75 76 55 
3 55 76 56 
3 76 77 56 
3 56 77 57 
3 77 78 57 
3 57 78 58 
3 78 79 58 
3 58 79 59 
3 79 80 59 
3 59 80 60 
3 80 81 60 
3 60 81 61 
3 81 82 61 
3 61 82 62 
3 82 83 62 
3 63 84 64 
3 84 85 64 
3 64 85 65 
3 85 86 65 
3 65 86 66 
3 86 87 66 
3 66 87 67 
3 87 88 67 
3 67 88 68 
3 88 89 68 
3 68 89 69 
3 89 90 69 
3 69 90 70 
3 90 91 70 
3 70 91 71 
3 91 92 71 
3 71 92 72 
3 92 93 72 
3 72 93 73 
3 93 94 73 
3 73 94 74 
3 94 95 74 
3 74 95 75 
3 95 96 75 
3 75 96 76 
3 96 97 76 
3 76 97 77 
3 97 98 77 
3 77 98 78 
3 98 99 78 
3 78 99 79 
3 99 100 79 
3 79 100 80 
3 100 101 80 
3 80 101 81 
3 101 102 81 
3 81 102 82 
3 102 103 82 
3 82 103 83 
3 103 104 83 
3 84 105 85 
3 105 106 85 
3 85 106 86 
3 106 107 86 
3 86 107 87 
3 107 108 87 
3 87 108 88 
3 108 109 88 
3 88 109 89 
3 109 110 89 
3 89 110 90 
3 110 111 90 
3 90 111 91 
3 111 112 91 
3 91 112 92 
3 112 113 92 
3 92 113 93 
3 113 114 93 
3 93 114 94 
3 114 115 94 
3 94 115 95 
3 115 116 95 
3 95 116 96 
3 116 117 96 
3 96 117 97 
3 117 118 97 
3 97 118 98 
3 118 119 98 
3 98 119 99 
3 119 120 99 
3 99 120 100 
3 120 121 100 
3 100 121 101 
3 121 122 101 
3 101 122 102 
3 122 123 102 
3 102 123 103 
3 123 124 103 
3 103 124 104 
3 124 125 104 
3 105 126 106 
3 126 127 106 
3 106 127 107 
3 127 128 107 
3 107 128 108 
3 128 129 108 
3 108 129 109 
3 129 130 109 
3 109 130 110 
3 130 131 110 
3 110 131 111 
3 131 132 111 
3 111 132 112 
3 132 133 112 
3 112 133 113 
3 133 134 113 
3 113 134 114 
3 134 135 114 
3 114 135 115 
3 135 136 115 
3 115 136 116 
3 136 137 116 
3 116 137 117 
3 137 138 117 
3 117 138 118 
3 138 139 118 
3 118 139 119 
3 139 140 119 
3 119 140 120 
3 140 141 120 
3 120 141 121 
3 141 142 121 
3 121 142 122 
3 142 143 122 
3 122 143 123 
3 143 144 123 
3 123 144 124 
3 144 145 124 
3 124 145 125 
3 145 146 125 
3 126 147 127 
3 147 148 127 
3 127 148 128 
3 148 149 128 
3 128 149 129 
3 149 150 129 
3 129 150 130 
3 150 151 130 
3 130 151 131 
3 151 152 131 
3 131 152 132 
3 152 153 132 
3 132 153 133 
3 153 154 133 
3 133 154 134 
3 154 155 134 
3 134 155 135 
3 155 156 135 
3 135 156 136 
3 156 157 136 
3 136 157 137 
3 157 158 137 
3 137 158 138 
3 158 159 138 
3 138 159 139 
3 159 160 139 
3 139 160 140 
3 160 161 140 
3 140 161 141 
3 161 162 141 
3 141 162 142 
3 162 163 142 
3 142 163 143 
3 163 164 143 
3 143 164 144 
3 164 165 144 
3 144 165 145 
3 165 166 145 
3 145 166 146 
3 166 167 146 
3 147 168 148 
3 168 169 148 
3 148 169 149 
3 169 170 149 
3 149 170 150 
3 170 171 150 
3 150 171 151 
3 171 172 151 
3 151 172 152 
3 172 173 152 
3 152 173 153 
3 173 174 153 
3 153 174 154 
3 174 175 154 
3 154 175 155 
3 175 176 155 
3 155 176 156 
3 176 177 156 
3 156 177 157 
3 177 178 157 
3 157 178 158 
3 178 179 158 
3 158 179 159 
3 179 180 159 
3 159 180 160 
3 180 181 160 
3 160 181 161 
3 181 182 161 
3 161 182 162 
3 182 183 162 
3 162 183 163 
3 183 184 163 
3 163 184 164 
3 184 185 164 
3 164 185 165 
3 185 186 165 
3 165 186 166 
3 186 187 166 
3 166 187 167 
3 187 188 167 
3 168 189 169 
3 189 190 169 
3 169 190 170 
3 190 191 170 
3 170 191 171 
3 191 192 171 
3 171 192 172 
3 192 193 172 
3 172 193 173 
3 193 194 173 
3 173 194 174 
3 194 195 174 
3 174 195 175 
3 195 196 175 
3 175 196 176 
3 196 197 176 
3 176 197 177 
3 197 198 177 
3 177 198 178 
3 198 199 178 
3 178 199 179 
3 199 200 179 
3 179 200 180 
3 200 201 180 
3 180 201 181 
3 201 202 181 
3 181 202 182 
3 202 203 182 
3 182 203 183 
3 203 204 183 
3 183 204 184 
3 204 205 184 
3 184 205 185 
3 205 206 185 
3 185 206 186 
3 206 207 186 
3 186 207 187 
3 207 208 187 
3 187 208 188 
3 208 209 188 
3 189 210 190 
3 210 211 190 
3 190 211 191 
3 211 212 191 
3 191 212 192 
3 212 213 192 
3 192 213 193 
3 213 214 193 
3 193 214 194 
3 214 215 194 
3 194 215 195 
3 215 216 195 
3 195 216 196 
3 216 217 196 
3 196 217 197 
3 217 218 197 
3 197 218 198 
3 218 219 198 
3 198 219 199 
3 219 220 199 
3 199 220 200 
3 220 221 200 
3 200 221 201 
3 221 222 201 
3 201 222 202 
3 222 223 202 
3 202 223 203 
3 223 224 203 
3 203 224 204 
3 224 225 204 
3 204 225 205 
3 225 226 205 
3 205 226 206 
3 226 227 206 
3 206 227 207 
3 227 228 207 
3 207 228 208 
3 228 229 208 
3 208 229 209 
3 229 230 209 
3 210 231 211 
3 231 232 211 
3 211 232 212 
3 232 233 212 
3 212 233 213 
3 233 234 213 
3 213 234 214 
3 234 235 214 
3 214 235 215 
3 235 236 215 
3 215 236 216 
3 236 237 216 
3 216 237 217 
3 237 238 217 
3 217 238 218 
3 238 239 218 
3 218 239 219 
3 239 240 219 
3 219 240 220 
3 240 241 220 
3 220 241 221 
3 241 242 221 
3 221 242 222 
3 242 243 222 
3 222 243 223 
3 243 244 223 
3 223 244 224 
3 244 245 224 
3 224 245 225 
3 245 246 225 
3 225 246 226 
3 246 247 226 
3 226 247 227 
3 247 248 227 
3 227 248 228 
3 248 249 228 
3 228 249 229 
3 249 250 229 
3 229 250 230 
3 250 251 230 
3 231 252 232 
3 252 253 232 
3 232 253 233 
3 253 254 233 
3 233 254 234 
3 254 255 234 
3 234 255 235 
3 255 256 235 
3 235 256 236 
3 256 257 236 
3 236 257 237 
3 257 258 237 
3 237 258 238 
3 258 259 238 
3 238 259 239 
3 259 260 239 
3 239 260 240 
3 260 261 240 
3 240 261 241 
3 261 262 241 
3 241 262 242 
3 262 263 242 
3 242 263 243 
3 263 264 243 
3 243 264 244 
3 264 265 244 
3 244 265 245 
3 265 266 245 
3 245 266 246 
3 266 267 246 
3 246 267 247 
3 267 268 247 
3 247 268 248 
3 268 269 248 
3 248 269 249 
3 269 270 249 
3 249 270 250 
3 270 271 250 
3 250 271 251 
3 271 272 251 
3 252 273 253 
3 273 274 253 
3 253 274 254 
3 274 275 254 
3 254 275 255 
3 275 276 255 
3 255 276 256 
3 276 277 256 
3 256 277 257 
3 277 278 257 
3 257 278 258 
3 278 279 258 
3 258 279 259 
3 279 280 259 
3 259 280 260 
3 280 281 260 
3 260 281 261 
3 281 282 261 
3 261 282 262 
3 282 283 262 
3 262 283 263 
3 283 284 263 
3 263 284 264 
3 284 285 264 
3 264 285 265 
3 285 286 265 
3 265 286 266 
3 286 287 266 
3 266 287 267 
3 287 288 267 
3 267 288 268 
3 288 289 268 
3 268 289 269 
3 289 290 269 
3 269 290 270 
3 290 291 270 
3 270 291 271 
3 291 292 271 
3 271 292 272 
3 292 293 272 
3 273 294 274 
3 294 295 274 
3 274 295 275 
3 295 296 275 
3 275 296 276 
3 296 297 276 
3 276 297 277 
3 297 298 277 
3 277 298 278 
3 298 299 278 
3 278 299 279 
3 299 300 279 
3 279 300 280 
3 300 301 280 
3 280 301 281 
3 301 302 281 
3 281 302 282 
3 302 303 282 
3 282 303 283 
3 303 304 283 
3 283 304 284 
3 304 305 284 
3 284 305 285 
3 305 306 285 
3 285 306 286 
3 306 307 286 
3 286 307 287 
3 307 308 287 
3 287 308 288 
3 308 309 288 
3 288 309 289 
3 309 310 289 
3 289 310 290 
3 310 311 290 
3 290 311 291 
3 311 312 291 
3 291 312 292 
3 312 313 292 
3 292 313 293 
3 313 314 293 
3 294 315 295 
3 315 316 295 
3 295 316 296 
3 316 317 296 
3 296 317 297 
3 317 318 297 
3 297 318 298 
3 318 319 298 
3 298 319 299 
3 319 320 299 
3 299 320 300 
3 320 321 300 
3 300 321 301 
3 321 322 301 
3 301 322 302 
3 322 323 302 
3 302 323 303 
3 323 324 303 
3 303 324 304 
3 324 325 304 
3 304 325 305 
3 325 326 305 
3 305 326 306 
3 326 327 306 
3 306 327 307 
3 327 328 307 
3 307 328 308 
3 328 329 308 
3 308 329 309 
3 329 330 309 
3 309 330 310 
3 330 331 310 
3 310 331 311 
3 331 332 311 
3 311 332 312 
3 332 333 312 
3 312 333 313 
3 333 334 313 
3 313 334 314 
3 334 335 314 
3 315 336 316 
3 336 337 316 
3 316 337 317 
3 337 338 317 
3 317 338 318 
3 338 339 318 
3 318 339 319 
3 339 340 319 
3 319 340 320 
3 340 341 320 
3 320 341 321 
3 341 342 321 
3 321 342 322 
3 342 343 322 
3 322 343 323 
3 343 344 323 
3 323 344 324 
3 344 345 324 
3 324 345 325 
3 345 346 325 
3 325 346 326 
3 346 347 326 
3 326 347 327 
3 347 348 327 
3 327 348 328 
3 348 349 328 
3 328 349 329 
3 349 350 329 
3 329 350 330 
3 350 351 330 
3 330 351 331 
3 351 352 331 
3 331 352 332 
3 352 353 332 
3 332 353 333 
3 353 354 333 
3 333 354 334 
3 354 355 334 
3 334 355 335 
3 355 356 335 
3 336 357 337 
3 357 358 337 
3 337 358 338 
3 358 359 338 
3 338 359 339 
3 359 360 339 
3 339 360 340 
3 360 361 340 
3 340 361 341 
3 361 362 341 
3 341 362 342 
3 362 363 342 
3 342 363 343 
3 363 364 343 
3 343 364 344 
3 364 365 344 
3 344 365 345 
3 365 366 345 
3 345 366 346 
3 366 367 346 
3 346 367 347 
3 367 368 347 
3 347 368 348 
3 368 369 348 
3 348 369 349 
3 369 370 349 
3 349 370 350 
3 370 371 350 
3 350 371 351 
3 371 372 351 
3 351 372 352 
3 372 373 352 
3 352 373 353 
3 373 374 353 
3 353 374 354 
3 374 375 354 
3 354 375 355 
3 375 376 355 
3 355 376 356 
3 376 377 356 
3 357 378 358 
3 378 379 358 
3 358 379 359 
3 379 380 359 
3 359 380 360 
3 380 381 360 
3 360 381 361 
3 381 382 361 
3 361 382 362 
3 382 383 362 
3 362 383 363 
3 383 384 363 
3 363 384 364 
3 384 385 364 
3 364 385 365 
3 385 386 365 
3 365 386 366 
3 386 387 366 
3 366 387 367 
3 387 388 367 
3 367 388 368 
3 388 389 368 
3 368 389 369 
3 389 390 369 
3 369 390 370 
3 390 391 370 
3 370 391 371 
3 391 392 371 
3 371 392 372 
3 392 393 372 
3 372 393 373 
3 393 394 373 
3 373 394 374 
3 394 395 374 
3 374 395 375 
3 395 396 375 
3 375 396 376 
3 396 397 376 
3 376 397 377 
3 397 398 377 
3 378 399 379 
3 399 400 379 
3 379 400 380 
3 400 401 380 
3 380 401 381 
3 401 402 381 
3 381 402 382 
3 402 403 382 
3 382 403 383 
3 403 404 383 
3 383 404 384 
3 404 405 384 
3 384 405 385 
3 405 406 385 
3 385 406 386 
3 406 407 386 
3 386 407 387 
3 407 408 387 
3 387 408 388 
3 408 409 388 
3 388 409 389 
3 409 410 389 
3 389 410 390 
3 410 411 390 
3 390 411 391 
3 411 412 391 
3 391 412 392 
3 412 413 392 
3 392 413 393 
3 413 414 393 
3 393 414 394 
3 414 415 394 
3 394 415 395 
3 415 416 395 
3 395 416 396 
3 416 417 396 
3 396 417 397 
3 417 418 397 
3 397 418 398 
3 418 419 398 
3 399 420 400 
3 420 421 400 
3 400 421 401 
3 421 422 401 
3 401 422 402 
3 422 423 402 
3 402 423 403 
3 423 424 403 
3 403 424 404 
3 424 425 404 
3 404 425 405 
3 425 426 405 
3 405 426 406 
3 426 427 406 
3 406 427 407 
3 427 428 407 
3 407 428 408 
3 428 429 408 
3 408 429 409 
3 429 430 409 
3 409 430 410 
3 430 431 410 
3 410 431 411 
3 431 432 411 
3 411 432 412 
3 432 433 412 
3 412 433 413 
3 433 434 413 
3 413 434 414 
3 434 435 414 
3 414 435 415 
3 435 436 415 
3 415 436 416 
3 436 437 416 
3 416 437 417 
3 437 438 417 
3 417 438 418 
3 438 439 418 
3 418 439 419 
3 439 440 419 
POINT_DATA 441
SCALARS NodeID int 1
LOOKUP_TABLE my_table
0
1
2
3
4
5
6
7
8
9
10
11
12
13
14
15
16
17
18
19
20
21
22
23
24
25
26
27
28
29
30
31
32
33
34
35
36
37
38
39
40
41
42
43
44
45
46
47
48
49
50
51
52
53
54
55
56
57
58
59
60
61
62
63
64
65
66
67
68
69
70
71
72
73
74
75
76
77
78
79
80
81
82
83
84
85
86
87
88
89
90
91
92
93
94
95
96
97
98
99
100
101
102
103
104
105
106
107
108
109
110
111
112
113
114
115
116
117
118
119
120
121
122
123
124
125
126
127
128
129
130
131
132
133
134
135
136
137
138
139
140
141
142
143
144
145
146
147
148
149
150
151
152
153
154
155
156
157
158
159
160
161
162
163
164
165
166
167
168
169
170
171
172
173
174
175
176
177
178
179
180
181
182
183
184
185
186
187
188
189
190
191
192
193
194
195
196
197
198
199
200
201
202
203
204
205
206
207
208
209
210
211
212
213
214
215
216
217
218
219
220
221
222
223
224
225
226
227
228
229
230
231
232
233
234
235
236
237
238
239
240
241
242
243
244
245
246
247
248
249
250
251
252
253
254
255
256
257
258
259
260
261
262
263
264
265
266
267
268
269
270
271
272
273
274
275
276
277
278
279
280
281
282
283
284
285
286
287
288
289
290
291
292
293
294
295
296
297
298
299
300
301
302
303
304
305
306
307
308
309
310
311
312
313
314
315
316
317
318
319
320
321
322
323
324
325
326
327
328
329
330
331
332
333
334
335
336
337
338
339
340
341
342
343
344
345
346
347
348
349
350
351
352
353
354
355
356
357
358
359
360
361
362
363
364
365
366
367
368
369
370
371
372
373
374
375
376
377
378
379
380
381
382
383
384
385
386
387
388
389
390
391
392
393
394
395
396
397
398
399
400
401
402
403
404
405
406
407
408
409
410
411
412
413
414
415
416
417
418
419
420
421
422
423
424
425
426
427
428
429
430
431
432
433
434
435
436
437
438
439
440
FIELD FieldData2 1
Temperature 1 441 float
300 301.301 302.596 303.88 305.146 306.39 307.605 308.783 309.919 311.005 312.034 312.997 313.887 314.697 315.417 316.042 316.564 316.976 317.274 317.455 317.516 300 301.303 302.601 303.888 305.158 306.405 307.623 308.805 309.944 311.034 312.066 313.033 313.928 314.741 315.466 316.094 316.618 317.033 317.333 317.515 317.576 300 301.312 302.618 303.914 305.192 306.449 307.676 308.868 310.019 311.12 312.164 313.143 314.049 314.874 315.61 316.248 316.782 317.205 317.511 317.696 317.758 300 301.326 302.646 303.956 305.249 306.521 307.765 308.974 310.143 311.263 312.326 313.326 314.252 315.097 315.852 316.508 317.057 317.493 317.809 318 318.064 300 301.345 302.684 304.014 305.328 306.622 307.888 309.122 310.315 311.462 312.553 313.581 314.536 315.41 316.192 316.874 317.447 317.901 318.231 318.432 318.499 300 301.369 302.733 304.087 305.428 306.749 308.044 309.309 310.535 311.716 312.843 313.909 314.902 315.814 316.633 317.35 317.953 318.434 318.784 318.997 319.068 300 301.397 302.791 304.175 305.547 306.901 308.232 309.534 310.8 312.024 313.196 314.308 315.35 316.31 317.177 317.939 318.583 319.098 319.474 319.703 319.779 300 301.43 302.857 304.276 305.684 307.077 308.448 309.794 311.108 312.382 313.609 314.778 315.879 316.9 317.826 318.645 319.341 319.9 320.31 320.561 320.645 300 301.467 302.93 304.388 305.837 307.272 308.691 310.087 311.456 312.789 314.079 315.316 316.489 317.583 318.584 319.474 320.236 320.852 321.306 321.585 321.679 300 301.506 303.01 304.51 306.002 307.486 308.955 310.408 311.838 313.239 314.603 315.919 317.177 318.36 319.451 320.431 321.277 321.967 322.478 322.794 322.9 300 301.548 303.094 304.638 306.178 307.712 309.237 310.751 312.249 313.726 315.173 316.582 317.939 319.228 320.431 321.522 322.475 323.259 323.847 324.211 324.334 300 301.59 303.18 304.77 306.359 307.946 309.531 311.111 312.682 314.242 315.782 317.295 318.768 320.184 321.521 322.751 323.84 324.749 325.438 325.869 326.016 300 301.633 303.267 304.903 306.542 308.184 309.829 311.478 313.128 314.776 316.419 318.049 319.654 321.219 322.718 324.121 325.385 326.459 327.287 327.811 327.992 300 301.675 303.352 305.034 306.722 308.418 310.125 311.843 313.574 315.317 317.069 318.827 320.582 322.318 324.013 325.63 327.12 328.417 329.438 330.098 330.328 300 301.715 303.433 305.158 306.893 308.642 310.409 312.196 314.008 315.847 317.714 319.609 321.528 323.459 325.384 327.266 329.05 330.649 331.95 332.816 333.123 300 301.751 303.506 305.271 307.05 308.849 310.672 312.525 314.416 316.349 318.331 320.368 322.46 324.607 326.797 329.001 331.162 333.181 334.897 336.092 336.532 300 301.783 303.571 305.371 307.188 309.03 310.904 312.818 314.78 316.802 318.895 321.069 323.339 325.713 328.196 330.778 333.418 336.015 338.366 340.124 340.82 300 301.808 303.624 305.452 307.302 309.18 311.097 313.061 315.086 317.185 319.375 321.676 324.112 326.71 329.497 332.498 335.716 339.094 342.429 345.218 346.499 300 301.828 303.663 305.513 307.386 309.292 311.241 313.244 315.317 317.476 319.745 322.149 324.724 327.516 330.584 334.001 337.854 342.216 347.039 351.819 354.74 300 301.84 303.687 305.55 307.439 309.362 311.33 313.358 315.461 317.659 319.978 322.45 325.12 328.048 331.321 335.067 339.483 344.876 351.691 360.279 368.825 300 301.844 303.695 305.563 307.456 309.385 311.361 313.397 315.51 317.722 320.058 322.554 325.257 328.235 331.585 335.464 340.136 346.115 354.57 368.782 400 